
4 atoms
1 atom types
   0.0000000000    4.0028914312 xlo xhi
   0.0000000000    3.9828266861 ylo yhi
   0.0000000000    4.0028914312 zlo zhi
   0.0000000000    0.0000000000    0.0000000000 xy xz yz

Atoms # atomic

     1      1    4.0028914312    3.9828266861    4.0028914312
     2      1    4.0028914312    1.9914133431    2.0014457156
     3      1    2.0014457156    3.9828266861    2.0014457156
     4      1    2.0014457156    1.9914133431    4.0028914312
