
2 atoms
1 atom types
   0.0000000000    3.1617699325 xlo xhi
   0.0000000000    3.1617699325 ylo yhi
   0.0000000000    3.1616118401 zlo zhi
   0.0000000000    0.0000000000   -0.0316176993 xy xz yz

Atoms # atomic

     1      1    0.0000000000    0.0000000000    0.0000000000
     2      1    1.5808849663    1.5650761166    1.5808059201
