
4 atoms
1 atom types
   0.0000000000    4.0028914312 xlo xhi
   0.0000000000    4.0028914312 ylo yhi
   0.0000000000    4.0020907728 zlo zhi
   0.0000000000    0.0000000000    0.0800578286 xy xz yz

Atoms # atomic

     1      1    4.0028914312    4.0829492598    4.0020907728
     2      1    4.0028914312    2.0414746299    2.0010453864
     3      1    2.0014457156    4.0429203455    2.0010453864
     4      1    2.0014457156    2.0815035442    4.0020907728
