ITEM: TIMESTEP
0
ITEM: NUMBER OF ATOMS
4
ITEM: BOX BOUNDS xy xz yz pp pp pp
0.0000000000000000e+00 4.0038866454999997e+00 0.0000000000000000e+00
0.0000000000000000e+00 4.0038866454999997e+00 0.0000000000000000e+00
0.0000000000000000e+00 4.0038866454999997e+00 0.0000000000000000e+00
ITEM: ATOMS id type xs ys zs fx fy fz
1 1 0 0 0 -6.98791e-10 -6.98789e-10 -6.98793e-10
2 1 0 0.5 0.5 -6.9879e-10 6.98789e-10 6.98793e-10
3 1 0.5 0 0.5 6.9879e-10 -6.98788e-10 6.98793e-10
4 1 0.5 0.5 0 6.98791e-10 6.98788e-10 -6.98793e-10
ITEM: TIMESTEP
6
ITEM: NUMBER OF ATOMS
4
ITEM: BOX BOUNDS xy xz yz pp pp pp
4.9760715593748141e-04 4.0033890383440616e+00 0.0000000000000000e+00
4.9760715593748141e-04 4.0033890383440616e+00 0.0000000000000000e+00
4.9760715593748141e-04 4.0033890383440616e+00 0.0000000000000000e+00
ITEM: ATOMS id type xs ys zs fx fy fz
1 1 -6.24438e-12 -6.24438e-12 -6.24438e-12 4.2473e-14 4.23899e-14 4.20611e-14
2 1 -6.24438e-12 0.5 0.5 4.36595e-14 -4.28491e-14 -4.25897e-14
3 1 0.5 -6.24438e-12 0.5 -4.30732e-14 4.34811e-14 -4.26445e-14
4 1 0.5 0.5 -6.24438e-12 -4.29934e-14 -4.30917e-14 4.31348e-14
ITEM: TIMESTEP
7
ITEM: NUMBER OF ATOMS
4
ITEM: BOX BOUNDS xy xz yz pp pp pp
4.9760715592732396e-04 4.0033890383440713e+00 0.0000000000000000e+00
4.9760715592732493e-04 4.0033890383440713e+00 0.0000000000000000e+00
4.9760715592733231e-04 4.0033890383440713e+00 0.0000000000000000e+00
ITEM: ATOMS id type xs ys zs fx fy fz
1 1 1 1 1 3.57735e-14 3.58558e-14 3.53056e-14
2 1 1 0.5 0.5 3.49026e-14 -3.5652e-14 -3.48163e-14
3 1 0.5 1 0.5 -3.53259e-14 3.51835e-14 -3.4933e-14
4 1 0.5 0.5 1 -3.54022e-14 -3.53786e-14 3.44526e-14
ITEM: TIMESTEP
8
ITEM: NUMBER OF ATOMS
4
ITEM: BOX BOUNDS xy xz yz pp pp pp
4.9760715592822417e-04 4.0033890383440704e+00 -3.3847683075468209e-17
4.9760715592824965e-04 4.0033890383440704e+00 -2.3607623963217771e-17
4.9760715592828445e-04 4.0033890383440704e+00 -2.9295144479997265e-17
ITEM: ATOMS id type xs ys zs fx fy fz
1 1 1 1 1 4.09707e-14 4.09508e-14 4.08628e-14
2 1 1 0.5 0.5 4.29309e-14 -4.18627e-14 -4.17944e-14
3 1 0.5 1 0.5 -4.2015e-14 4.26018e-14 -4.16458e-14
4 1 0.5 0.5 1 -4.19595e-14 -4.17339e-14 4.24359e-14
