
4 atoms
1 atom types
   0.0000000000    4.0228561008 xlo xhi
   0.0000000000    4.0028914312 ylo yhi
   0.0000000000    4.0028914312 zlo zhi
   0.0000000000    0.0000000000    0.0000000000 xy xz yz

Atoms # atomic

     1      1    4.0228561008    4.0028914312    4.0028914312
     2      1    4.0228561008    2.0014457156    2.0014457156
     3      1    2.0114280504    4.0028914312    2.0014457156
     4      1    2.0114280504    2.0014457156    4.0028914312
