
4 atoms
1 atom types
   0.0000000000    3.7159552338 xlo xhi
   0.0000000000    3.7159552338 ylo yhi
   0.0000000000    3.7159552338 zlo zhi
  -0.0000000000   -0.0000000000   -0.0000000000 xy xz yz

Atoms # atomic

     1      1    3.7159552338    3.7159552338    3.7159552338
     2      1    3.7159552338    1.8579776169    1.8579776169
     3      1    1.8579776169    3.7159552338    1.8579776169
     4      1    1.8579776169    1.8579776169    3.7159552338
