
4 atoms
1 atom types
   0.0000000000    4.2537068809 xlo xhi
   0.0000000000    4.2537068809 ylo yhi
   0.0000000000    4.2537068809 zlo zhi
  -0.0000000000   -0.0000000000   -0.0000000000 xy xz yz

Atoms # atomic

     1      1    4.2537068809    4.2537068809    4.2537068809
     2      1    4.2537068809    2.1268534404    2.1268534404
     3      1    2.1268534404    4.2537068809    2.1268534404
     4      1    2.1268534404    2.1268534404    4.2537068809
