
2 atoms
1 atom types
   0.0000000000    3.3598819126 xlo xhi
   0.0000000000    3.3598819126 ylo yhi
   0.0000000000    3.3598819126 zlo zhi
  -0.0000000000   -0.0000000000   -0.0000000000 xy xz yz

Atoms # atomic

     1      1    0.0000000000    0.0000000000    0.0000000000
     2      1    1.6799409563    1.6799409563    1.6799409563
