
4 atoms
1 atom types
   0.0000000000    3.3761693887 xlo xhi
   0.0000000000    3.3761693887 ylo yhi
   0.0000000000    3.3761693887 zlo zhi
  -0.0000000000   -0.0000000000   -0.0000000000 xy xz yz

Atoms # atomic

     1      1    3.3761693887    3.3761693887    3.3761693887
     2      1    3.3761693887    1.6880846944    1.6880846944
     3      1    1.6880846944    3.3761693887    1.6880846944
     4      1    1.6880846944    1.6880846944    3.3761693887
