ITEM: TIMESTEP
0
ITEM: NUMBER OF ATOMS
2
ITEM: BOX BOUNDS xy xz yz pp pp pp
0.0000000000000000e+00 3.1623672675000001e+00 0.0000000000000000e+00
0.0000000000000000e+00 3.1623672675000001e+00 0.0000000000000000e+00
0.0000000000000000e+00 3.1623672675000001e+00 0.0000000000000000e+00
ITEM: ATOMS id type xs ys zs fx fy fz
1 1 0 0 0 2.81271e-10 2.81271e-10 2.81272e-10
2 1 0.5 0.5 0.5 -2.81271e-10 -2.81271e-10 -2.81272e-10
ITEM: TIMESTEP
4
ITEM: NUMBER OF ATOMS
2
ITEM: BOX BOUNDS xy xz yz pp pp pp
2.9866749404535543e-04 3.1620686000059548e+00 0.0000000000000000e+00
2.9866749404535543e-04 3.1620686000059548e+00 0.0000000000000000e+00
2.9866749404535543e-04 3.1620686000059548e+00 0.0000000000000000e+00
ITEM: ATOMS id type xs ys zs fx fy fz
1 1 7.90163e-12 7.90157e-12 7.90164e-12 1.35308e-13 1.37146e-13 1.35987e-13
2 1 0.5 0.5 0.5 -1.35114e-13 -1.37119e-13 -1.36087e-13
ITEM: TIMESTEP
5
ITEM: NUMBER OF ATOMS
2
ITEM: BOX BOUNDS xy xz yz pp pp pp
2.9866749372187357e-04 3.1620686000062781e+00 0.0000000000000000e+00
2.9866749372189260e-04 3.1620686000062781e+00 0.0000000000000000e+00
2.9866749372189981e-04 3.1620686000062781e+00 0.0000000000000000e+00
ITEM: ATOMS id type xs ys zs fx fy fz
1 1 7.90191e-12 7.90186e-12 7.90192e-12 1.25483e-13 1.29439e-13 1.25312e-13
2 1 0.5 0.5 0.5 -1.25289e-13 -1.29511e-13 -1.25374e-13
ITEM: TIMESTEP
6
ITEM: NUMBER OF ATOMS
2
ITEM: BOX BOUNDS xy xz yz pp pp pp
2.9866749371824876e-04 3.1620686000062816e+00 -2.9607253805968378e-17
2.9866749371835268e-04 3.1620686000062816e+00 -6.1517551630255350e-18
2.9866749371833316e-04 3.1620686000062816e+00 -4.3742379676789617e-17
ITEM: ATOMS id type xs ys zs fx fy fz
1 1 7.90281e-12 7.90277e-12 7.90281e-12 9.22873e-14 9.67531e-14 9.22827e-14
2 1 0.5 0.5 0.5 -9.21763e-14 -9.67112e-14 -9.23563e-14
