
4 atoms
1 atom types
   0.0000000000    4.0028914312 xlo xhi
   0.0000000000    4.0028914312 ylo yhi
   0.0000000000    4.0026912816 zlo zhi
   0.0000000000   -0.0400289143    0.0000000000 xy xz yz

Atoms # atomic

     1      1    3.9628625169    4.0028914312    4.0026912816
     2      1    3.9828769740    2.0014457156    2.0013456408
     3      1    1.9814312584    4.0028914312    2.0013456408
     4      1    1.9614168013    2.0014457156    4.0026912816
