
2 atoms
1 atom types
   0.0000000000    2.6667400413 xlo xhi
   0.0000000000    2.6667400413 ylo yhi
   0.0000000000    2.6667400413 zlo zhi
  -0.0000000000   -0.0000000000   -0.0000000000 xy xz yz

Atoms # atomic

     1      1    0.0000000000    0.0000000000    0.0000000000
     2      1    1.3333700207    1.3333700207    1.3333700207
