
4 atoms
1 atom types
   0.0000000000    4.0028914312 xlo xhi
   0.0000000000    4.0020907728 ylo yhi
   0.0000000000    4.0028914312 zlo zhi
  -0.0800578286    0.0000000000    0.0000000000 xy xz yz

Atoms # atomic

     1      1    3.9228336026    4.0020907728    4.0028914312
     2      1    3.9628625169    2.0010453864    2.0014457156
     3      1    1.9213878870    4.0020907728    2.0014457156
     4      1    1.9614168013    2.0010453864    4.0028914312
